# vtk DataFile Version 2.0
mask-test-5.vtk
ASCII
DATASET POLYDATA
POINTS 50 float
0 0 0
1 0 0
2 0 0
3 0 0
4 0 0
0 1 0
1 1 0
2 1 0
3 1 0
4 1 0
0 2 0
1 2 0
2 2 0
3 2 0
4 2 0
0 3 0
1 3 0
2 3 0
3 3 0
4 3 0
0 4 0
1 4 0
2 4 0
3 4 0
4 4 0
0 0 1
1 0 1
2 0 1
3 0 1
4 0 1
0 1 1
1 1 1
2 1 1
3 1 1
4 1 1
0 2 1
1 2 1
2 2 1
3 2 1
4 2 1
0 3 1
1 3 1
2 3 1
3 3 1
4 3 1
0 4 1
1 4 1
2 4 1
3 4 1
4 4 1
POLYGONS 96 384
3 25 26 31
3 25 31 30
3 0 6 1
3 0 5 6
3 0 25 5
3 25 30 5
3 0 1 26
3 0 26 25
3 31 6 5
3 30 31 5
3 26 27 32
3 26 32 31
3 1 7 2
3 1 6 7
3 1 2 27
3 1 27 26
3 27 28 33
3 27 33 32
3 2 8 3
3 2 7 8
3 2 3 28
3 2 28 27
3 28 29 34
3 28 34 33
3 3 9 4
3 3 8 9
3 9 29 4
3 29 9 34
3 3 4 29
3 3 29 28
3 34 9 8
3 33 34 8
3 31 32 37
3 31 37 36
3 6 12 7
3 6 11 12
3 6 31 11
3 31 36 11
3 32 33 38
3 32 38 37
3 7 13 8
3 7 12 13
3 13 33 8
3 33 13 38
3 35 36 41
3 35 41 40
3 10 16 11
3 10 15 16
3 10 35 15
3 35 40 15
3 10 11 36
3 10 36 35
3 36 37 42
3 36 42 41
3 11 17 12
3 11 16 17
3 37 38 43
3 37 43 42
3 12 18 13
3 12 17 18
3 43 18 17
3 42 43 17
3 38 39 44
3 38 44 43
3 13 19 14
3 13 18 19
3 19 39 14
3 39 19 44
3 13 14 39
3 13 39 38
3 40 41 46
3 40 46 45
3 15 21 16
3 15 20 21
3 15 40 20
3 40 45 20
3 46 21 20
3 45 46 20
3 41 42 47
3 41 47 46
3 16 22 17
3 16 21 22
3 22 42 17
3 42 22 47
3 47 22 21
3 46 47 21
3 43 44 49
3 43 49 48
3 18 24 19
3 18 23 24
3 18 43 23
3 43 48 23
3 24 44 19
3 44 24 49
3 49 24 23
3 48 49 23
CELL_DATA 96
SCALARS patch_index int 1
LOOKUP_TABLE default
1
1
2
2
3
3
3
3
3
3
1
1
2
2
3
3
1
1
2
2
3
3
1
1
2
2
3
3
3
3
3
3
1
1
2
2
3
3
1
1
2
2
3
3
1
1
2
2
3
3
3
3
1
1
2
2
1
1
2
2
3
3
1
1
2
2
3
3
3
3
1
1
2
2
3
3
3
3
1
1
2
2
3
3
3
3
1
1
2
2
3
3
3
3
3
3
