# vtk DataFile Version 2.0
mask-test-12.vtk
ASCII
DATASET POLYDATA
POINTS 18 float
12 12 0
14 12 0
16 12 0
12 14 0
14 14 0
16 14 0
12 16 0
14 16 0
16 16 0
12 12 2
14 12 2
16 12 2
12 14 2
14 14 2
16 14 2
12 16 2
14 16 2
16 16 2
POLYGONS 32 128
3 9 10 13
3 9 13 12
3 0 4 1
3 0 3 4
3 0 9 3
3 9 12 3
3 0 1 10
3 0 10 9
3 10 11 14
3 10 14 13
3 1 5 2
3 1 4 5
3 5 11 2
3 11 5 14
3 1 2 11
3 1 11 10
3 12 13 16
3 12 16 15
3 3 7 4
3 3 6 7
3 3 12 6
3 12 15 6
3 16 7 6
3 15 16 6
3 13 14 17
3 13 17 16
3 4 8 5
3 4 7 8
3 8 14 5
3 14 8 17
3 17 8 7
3 16 17 7
CELL_DATA 32
SCALARS patch_index int 1
LOOKUP_TABLE default
1
1
2
2
3
3
3
3
1
1
2
2
3
3
3
3
1
1
2
2
3
3
3
3
1
1
2
2
3
3
3
3
