# vtk DataFile Version 2.0
mask-test-4.vtk
ASCII
DATASET POLYDATA
POINTS 46 float
0 0 0
1 0 0
2 0 0
3 0 0
0 1 0
1 1 0
2 1 0
3 1 0
4 1 0
0 2 0
1 2 0
2 2 0
3 2 0
4 2 0
0 3 0
1 3 0
2 3 0
3 3 0
4 3 0
1 4 0
2 4 0
3 4 0
4 4 0
0 0 1
1 0 1
2 0 1
3 0 1
0 1 1
1 1 1
2 1 1
3 1 1
4 1 1
0 2 1
1 2 1
2 2 1
3 2 1
4 2 1
0 3 1
1 3 1
2 3 1
3 3 1
4 3 1
1 4 1
2 4 1
3 4 1
4 4 1
POLYGONS 88 352
3 23 24 28
3 23 28 27
3 0 5 1
3 0 4 5
3 0 23 4
3 23 27 4
3 0 1 24
3 0 24 23
3 24 25 29
3 24 29 28
3 1 6 2
3 1 5 6
3 1 2 25
3 1 25 24
3 25 26 30
3 25 30 29
3 2 7 3
3 2 6 7
3 7 26 3
3 26 7 30
3 2 3 26
3 2 26 25
3 27 28 33
3 27 33 32
3 4 10 5
3 4 9 10
3 4 27 9
3 27 32 9
3 28 29 34
3 28 34 33
3 5 11 6
3 5 10 11
3 29 30 35
3 29 35 34
3 6 12 7
3 6 11 12
3 30 31 36
3 30 36 35
3 7 13 8
3 7 12 13
3 13 31 8
3 31 13 36
3 7 8 31
3 7 31 30
3 32 33 38
3 32 38 37
3 9 15 10
3 9 14 15
3 9 32 14
3 32 37 14
3 38 15 14
3 37 38 14
3 33 34 39
3 33 39 38
3 10 16 11
3 10 15 16
3 34 35 40
3 34 40 39
3 11 17 12
3 11 16 17
3 35 36 41
3 35 41 40
3 12 18 13
3 12 17 18
3 18 36 13
3 36 18 41
3 38 39 43
3 38 43 42
3 15 20 16
3 15 19 20
3 15 38 19
3 38 42 19
3 43 20 19
3 42 43 19
3 39 40 44
3 39 44 43
3 16 21 17
3 16 20 21
3 44 21 20
3 43 44 20
3 40 41 45
3 40 45 44
3 17 22 18
3 17 21 22
3 22 41 18
3 41 22 45
3 45 22 21
3 44 45 21
CELL_DATA 88
SCALARS patch_index int 1
LOOKUP_TABLE default
1
1
2
2
3
3
3
3
1
1
2
2
3
3
1
1
2
2
3
3
3
3
1
1
2
2
3
3
1
1
2
2
1
1
2
2
1
1
2
2
3
3
3
3
1
1
2
2
3
3
3
3
1
1
2
2
1
1
2
2
1
1
2
2
3
3
1
1
2
2
3
3
3
3
1
1
2
2
3
3
1
1
2
2
3
3
3
3
