# vtk DataFile Version 2.0
mask-test-10.vtk
ASCII
DATASET POLYDATA
POINTS 146 float
0 0 0
1 0 0
2 0 0
3 0 0
4 0 0
5 0 0
6 0 0
7 0 0
8 0 0
9 0 0
10 0 0
0 1 0
1 1 0
2 1 0
3 1 0
4 1 0
5 1 0
6 1 0
7 1 0
8 1 0
9 1 0
10 1 0
0 2 0
1 2 0
9 2 0
10 2 0
0 3 0
1 3 0
9 3 0
10 3 0
0 4 0
1 4 0
9 4 0
10 4 0
0 5 0
1 5 0
5.4453125 5.4765625 0
9 5 0
10 5 0
0 6 0
1 6 0
9 6 0
10 6 0
0 7 0
1 7 0
9 7 0
10 7 0
0 8 0
1 8 0
9 8 0
10 8 0
0 9 0
1 9 0
2 9 0
3 9 0
4 9 0
5 9 0
6 9 0
7 9 0
8 9 0
9 9 0
10 9 0
0 10 0
1 10 0
2 10 0
3 10 0
4 10 0
5 10 0
6 10 0
7 10 0
8 10 0
9 10 0
10 10 0
0 0 1
1 0 1
2 0 1
3 0 1
4 0 1
5 0 1
6 0 1
7 0 1
8 0 1
9 0 1
10 0 1
0 1 1
1 1 1
2 1 1
3 1 1
4 1 1
5 1 1
6 1 1
7 1 1
8 1 1
9 1 1
10 1 1
0 2 1
1 2 1
9 2 1
10 2 1
0 3 1
1 3 1
9 3 1
10 3 1
0 4 1
1 4 1
9 4 1
10 4 1
0 5 1
1 5 1
9 5 1
10 5 1
0 6 1
1 6 1
5.46875 5.5 1
9 6 1
10 6 1
0 7 1
1 7 1
9 7 1
10 7 1
0 8 1
1 8 1
9 8 1
10 8 1
0 9 1
1 9 1
2 9 1
3 9 1
4 9 1
5 9 1
6 9 1
7 9 1
8 9 1
9 9 1
10 9 1
0 10 1
1 10 1
2 10 1
3 10 1
4 10 1
5 10 1
6 10 1
7 10 1
8 10 1
9 10 1
10 10 1
POLYGONS 288 1152
3 73 74 85
3 73 85 84
3 0 12 1
3 0 11 12
3 0 73 11
3 73 84 11
3 0 1 74
3 0 74 73
3 74 75 86
3 74 86 85
3 1 13 2
3 1 12 13
3 1 2 75
3 1 75 74
3 75 76 87
3 75 87 86
3 2 14 3
3 2 13 14
3 2 3 76
3 2 76 75
3 76 77 88
3 76 88 87
3 3 15 4
3 3 14 15
3 3 4 77
3 3 77 76
3 77 78 89
3 77 89 88
3 4 16 5
3 4 15 16
3 4 5 78
3 4 78 77
3 78 79 90
3 78 90 89
3 5 17 6
3 5 16 17
3 5 6 79
3 5 79 78
3 79 80 91
3 79 91 90
3 6 18 7
3 6 17 18
3 6 7 80
3 6 80 79
3 80 81 92
3 80 92 91
3 7 19 8
3 7 18 19
3 7 8 81
3 7 81 80
3 81 82 93
3 81 93 92
3 8 20 9
3 8 19 20
3 8 9 82
3 8 82 81
3 82 83 94
3 82 94 93
3 9 21 10
3 9 20 21
3 21 83 10
3 83 21 94
3 9 10 83
3 9 83 82
3 84 85 96
3 84 96 95
3 11 23 12
3 11 22 23
3 11 84 22
3 84 95 22
3 85 86 113
3 85 113 96
3 12 36 13
3 12 23 36
3 86 87 113
3 13 36 14
3 87 88 113
3 14 36 15
3 88 89 113
3 15 36 16
3 89 90 113
3 16 36 17
3 90 91 113
3 17 36 18
3 91 92 113
3 18 36 19
3 92 93 97
3 92 97 113
3 19 24 20
3 19 36 24
3 93 94 98
3 93 98 97
3 20 25 21
3 20 24 25
3 25 94 21
3 94 25 98
3 95 96 100
3 95 100 99
3 22 27 23
3 22 26 27
3 22 95 26
3 95 99 26
3 96 113 100
3 23 27 36
3 113 97 101
3 36 28 24
3 97 98 102
3 97 102 101
3 24 29 25
3 24 28 29
3 29 98 25
3 98 29 102
3 99 100 104
3 99 104 103
3 26 31 27
3 26 30 31
3 26 99 30
3 99 103 30
3 100 113 104
3 27 31 36
3 113 101 105
3 36 32 28
3 101 102 106
3 101 106 105
3 28 33 29
3 28 32 33
3 33 102 29
3 102 33 106
3 103 104 108
3 103 108 107
3 30 35 31
3 30 34 35
3 30 103 34
3 103 107 34
3 104 113 108
3 31 35 36
3 113 105 109
3 36 37 32
3 105 106 110
3 105 110 109
3 32 38 33
3 32 37 38
3 38 106 33
3 106 38 110
3 107 108 112
3 107 112 111
3 34 40 35
3 34 39 40
3 34 107 39
3 107 111 39
3 108 113 112
3 35 40 36
3 113 109 114
3 36 41 37
3 109 110 115
3 109 115 114
3 37 42 38
3 37 41 42
3 42 110 38
3 110 42 115
3 111 112 117
3 111 117 116
3 39 44 40
3 39 43 44
3 39 111 43
3 111 116 43
3 112 113 117
3 40 44 36
3 113 114 118
3 36 45 41
3 114 115 119
3 114 119 118
3 41 46 42
3 41 45 46
3 46 115 42
3 115 46 119
3 116 117 121
3 116 121 120
3 43 48 44
3 43 47 48
3 43 116 47
3 116 120 47
3 117 113 121
3 44 48 36
3 113 118 122
3 36 49 45
3 118 119 123
3 118 123 122
3 45 50 46
3 45 49 50
3 50 119 46
3 119 50 123
3 120 121 125
3 120 125 124
3 47 52 48
3 47 51 52
3 47 120 51
3 120 124 51
3 121 113 126
3 121 126 125
3 48 53 36
3 48 52 53
3 113 127 126
3 36 53 54
3 113 128 127
3 36 54 55
3 113 129 128
3 36 55 56
3 113 130 129
3 36 56 57
3 113 131 130
3 36 57 58
3 113 132 131
3 36 58 59
3 113 122 133
3 113 133 132
3 36 60 49
3 36 59 60
3 122 123 134
3 122 134 133
3 49 61 50
3 49 60 61
3 61 123 50
3 123 61 134
3 124 125 136
3 124 136 135
3 51 63 52
3 51 62 63
3 51 124 62
3 124 135 62
3 136 63 62
3 135 136 62
3 125 126 137
3 125 137 136
3 52 64 53
3 52 63 64
3 137 64 63
3 136 137 63
3 126 127 138
3 126 138 137
3 53 65 54
3 53 64 65
3 138 65 64
3 137 138 64
3 127 128 139
3 127 139 138
3 54 66 55
3 54 65 66
3 139 66 65
3 138 139 65
3 128 129 140
3 128 140 139
3 55 67 56
3 55 66 67
3 140 67 66
3 139 140 66
3 129 130 141
3 129 141 140
3 56 68 57
3 56 67 68
3 141 68 67
3 140 141 67
3 130 131 142
3 130 142 141
3 57 69 58
3 57 68 69
3 142 69 68
3 141 142 68
3 131 132 143
3 131 143 142
3 58 70 59
3 58 69 70
3 143 70 69
3 142 143 69
3 132 133 144
3 132 144 143
3 59 71 60
3 59 70 71
3 144 71 70
3 143 144 70
3 133 134 145
3 133 145 144
3 60 72 61
3 60 71 72
3 72 134 61
3 134 72 145
3 145 72 71
3 144 145 71
CELL_DATA 288
SCALARS patch_index int 1
LOOKUP_TABLE default
1
1
2
2
3
3
3
3
1
1
2
2
3
3
1
1
2
2
3
3
1
1
2
2
3
3
1
1
2
2
3
3
1
1
2
2
3
3
1
1
2
2
3
3
1
1
2
2
3
3
1
1
2
2
3
3
1
1
2
2
3
3
3
3
1
1
2
2
3
3
1
1
2
2
1
2
1
2
1
2
1
2
1
2
1
2
1
1
2
2
1
1
2
2
3
3
1
1
2
2
3
3
1
2
1
2
1
1
2
2
3
3
1
1
2
2
3
3
1
2
1
2
1
1
2
2
3
3
1
1
2
2
3
3
1
2
1
2
1
1
2
2
3
3
1
1
2
2
3
3
1
2
1
2
1
1
2
2
3
3
1
1
2
2
3
3
1
2
1
2
1
1
2
2
3
3
1
1
2
2
3
3
1
2
1
2
1
1
2
2
3
3
1
1
2
2
3
3
1
1
2
2
1
2
1
2
1
2
1
2
1
2
1
2
1
1
2
2
1
1
2
2
3
3
1
1
2
2
3
3
3
3
1
1
2
2
3
3
1
1
2
2
3
3
1
1
2
2
3
3
1
1
2
2
3
3
1
1
2
2
3
3
1
1
2
2
3
3
1
1
2
2
3
3
1
1
2
2
3
3
1
1
2
2
3
3
3
3
