# vtk DataFile Version 2.0
mask-test-8.vtk
ASCII
DATASET POLYDATA
POINTS 12 float
0 0 0
1 0 0
2 0 0
0 1 0
1 1 0
2 1 0
0 0 1
1 0 1
2 0 1
0 1 1
1 1 1
2 1 1
POLYGONS 20 80
3 6 7 10
3 6 10 9
3 0 4 1
3 0 3 4
3 0 6 3
3 6 9 3
3 0 1 7
3 0 7 6
3 10 4 3
3 9 10 3
3 7 8 11
3 7 11 10
3 1 5 2
3 1 4 5
3 5 8 2
3 8 5 11
3 1 2 8
3 1 8 7
3 11 5 4
3 10 11 4
CELL_DATA 20
SCALARS patch_index int 1
LOOKUP_TABLE default
1
1
2
2
3
3
3
3
3
3
4
4
2
2
3
3
3
3
3
3
