# vtk DataFile Version 2.0
mask-test-2.vtk
ASCII
DATASET POLYDATA
POINTS 16 float
1 1 0
2 1 0
3 1 0
1 2 0
2 2 0
3 2 0
1 3 0
2 3 0
1 1 1
2 1 1
3 1 1
1 2 1
2 2 1
3 2 1
1 3 1
2 3 1
POLYGONS 28 112
3 8 9 12
3 8 12 11
3 0 4 1
3 0 3 4
3 0 8 3
3 8 11 3
3 0 1 9
3 0 9 8
3 9 10 13
3 9 13 12
3 1 5 2
3 1 4 5
3 5 10 2
3 10 5 13
3 1 2 10
3 1 10 9
3 13 5 4
3 12 13 4
3 11 12 15
3 11 15 14
3 3 7 4
3 3 6 7
3 3 11 6
3 11 14 6
3 7 12 4
3 12 7 15
3 15 7 6
3 14 15 6
CELL_DATA 28
SCALARS patch_index int 1
LOOKUP_TABLE default
1
1
2
2
3
3
3
3
1
1
2
2
3
3
3
3
3
3
1
1
2
2
3
3
3
3
3
3
