# vtk DataFile Version 2.0
mask-test-6.vtk
ASCII
DATASET POLYDATA
POINTS 48 float
0 0 0
1 0 0
2 0 0
3 0 0
4 0 0
0 1 0
1 1 0
2 1 0
3 1 0
4 1 0
0 2 0
1 2 0
3 2 0
4 2 0
0 3 0
1 3 0
2 3 0
3 3 0
4 3 0
0 4 0
1 4 0
2 4 0
3 4 0
4 4 0
0 0 1
1 0 1
2 0 1
3 0 1
4 0 1
0 1 1
1 1 1
2 1 1
3 1 1
4 1 1
0 2 1
1 2 1
3 2 1
4 2 1
0 3 1
1 3 1
2 3 1
3 3 1
4 3 1
0 4 1
1 4 1
2 4 1
3 4 1
4 4 1
POLYGONS 96 384
3 24 25 30
3 24 30 29
3 0 6 1
3 0 5 6
3 0 24 5
3 24 29 5
3 0 1 25
3 0 25 24
3 25 26 31
3 25 31 30
3 1 7 2
3 1 6 7
3 1 2 26
3 1 26 25
3 31 7 6
3 30 31 6
3 26 27 32
3 26 32 31
3 2 8 3
3 2 7 8
3 2 3 27
3 2 27 26
3 32 8 7
3 31 32 7
3 27 28 33
3 27 33 32
3 3 9 4
3 3 8 9
3 9 28 4
3 28 9 33
3 3 4 28
3 3 28 27
3 29 30 35
3 29 35 34
3 5 11 6
3 5 10 11
3 5 29 10
3 29 34 10
3 11 30 6
3 30 11 35
3 32 33 37
3 32 37 36
3 8 13 9
3 8 12 13
3 8 32 12
3 32 36 12
3 13 33 9
3 33 13 37
3 34 35 39
3 34 39 38
3 10 15 11
3 10 14 15
3 10 34 14
3 34 38 14
3 15 35 11
3 35 15 39
3 36 37 42
3 36 42 41
3 12 18 13
3 12 17 18
3 12 36 17
3 36 41 17
3 18 37 13
3 37 18 42
3 38 39 44
3 38 44 43
3 14 20 15
3 14 19 20
3 14 38 19
3 38 43 19
3 44 20 19
3 43 44 19
3 39 40 45
3 39 45 44
3 15 21 16
3 15 20 21
3 15 16 40
3 15 40 39
3 45 21 20
3 44 45 20
3 40 41 46
3 40 46 45
3 16 22 17
3 16 21 22
3 16 17 41
3 16 41 40
3 46 22 21
3 45 46 21
3 41 42 47
3 41 47 46
3 17 23 18
3 17 22 23
3 23 42 18
3 42 23 47
3 47 23 22
3 46 47 22
CELL_DATA 96
SCALARS patch_index int 1
LOOKUP_TABLE default
1
1
2
2
3
3
3
3
1
1
2
2
3
3
3
3
1
1
2
2
3
3
3
3
1
1
2
2
3
3
3
3
1
1
2
2
3
3
3
3
1
1
2
2
3
3
3
3
1
1
2
2
3
3
3
3
1
1
2
2
3
3
3
3
1
1
2
2
3
3
3
3
1
1
2
2
3
3
3
3
1
1
2
2
3
3
3
3
1
1
2
2
3
3
3
3
